                         Program Version 4.0.1 -  RELEASE  -
|  1> # Scan dihedral restricted B3LYP/sto-3g calc
|  2> ! RKS STO-3G B3LYP UseSym Opt
|  3>
|  4> %output
|  5>  PrintLevel Normal
|  6> end
|  7>
|  8> % geom
|  9>   Scan
| 10>     D 4 3 10 11 = -180.0, 180.0, 13
| 11>   end
| 12> end
| 13>
| 14> * xyz 0 1
| 15> C          1.43509       -0.04780       -0.00010
| 16> C          0.73780        1.19228       -0.00002
| 17> C         -0.66368        1.24151       -0.00001
| 18> C         -1.43515        0.04767        0.00006
| 19> C         -0.73787       -1.19242       -0.00002
| 20> C          0.66362       -1.24165       -0.00002
| 21> H          1.31386        2.12801        0.00015
| 22> H         -1.16822        2.21645        0.00014
| 23> H         -1.31393       -2.12815        0.00006
| 24> H          1.16816       -2.21659        0.00006
| 25> C         -2.93303        0.04344       -0.00002
| 26> C         -3.73731        1.12067        0.00003
| 27> H         -3.38578       -0.95970       -0.00014
| 28> H         -4.82871        1.01517       -0.00009
| 29> H         -3.35133        2.14657       -0.00007
| 30> C          2.93296       -0.04343        0.00003
| 31> C          3.73745       -1.12051       -0.00004
| 32> H          3.38556        0.95978       -0.00003
| 33> H          4.82882       -1.01477       -0.00007
| 34> H          3.35169       -2.14649        0.00009
| 35> *
| 36>
| 37>
| 38>                          ****END OF INPUT****
 Total Charge           Charge          ....    0
 Multiplicity           Mult            ....    1
 Number of Electrons    NEL             ....   70
FINAL SINGLE POINT ENERGY      -382.050784655913
                    ***********************HURRAY********************
FINAL SINGLE POINT ENERGY      -382.050785361800
FINAL SINGLE POINT ENERGY      -382.039997710519
FINAL SINGLE POINT ENERGY      -382.048738640826
FINAL SINGLE POINT ENERGY      -382.049399996280
FINAL SINGLE POINT ENERGY      -382.049456013948
FINAL SINGLE POINT ENERGY      -382.049468251765
FINAL SINGLE POINT ENERGY      -382.049471006347
                    ***********************HURRAY********************
FINAL SINGLE POINT ENERGY      -382.049471222778
FINAL SINGLE POINT ENERGY      -382.035320968348
FINAL SINGLE POINT ENERGY      -382.049474927207
FINAL SINGLE POINT ENERGY      -382.049488161205
FINAL SINGLE POINT ENERGY      -382.049489028678
FINAL SINGLE POINT ENERGY      -382.041312394520
FINAL SINGLE POINT ENERGY      -382.050033317455
FINAL SINGLE POINT ENERGY      -382.050747126188
FINAL SINGLE POINT ENERGY      -382.050783571278
FINAL SINGLE POINT ENERGY      -382.050789366467
FINAL SINGLE POINT ENERGY      -382.050791067994

CARTESIAN COORDINATES (ANGSTROEM)
---------------------------------
  C     -0.086962    0.166209    1.423762
  C      0.565288    1.130897    0.606366
  C      0.652438    0.970493   -0.784188
  C      0.088813   -0.167149   -1.423474
  C     -0.563268   -1.131937   -0.606055
  C     -0.650472   -0.971506    0.784487
  H      1.008073    2.018455    1.079314
  H      1.163373    1.735503   -1.383228
  H     -1.005826   -2.019618   -1.078981
  H     -1.161097   -1.736666    1.383598
  C      0.152671   -0.388447   -2.903515
  C      0.727236    0.419226   -3.811856
  H     -0.330314   -1.316313   -3.245859
  H      0.721242    0.168604   -4.879270
  H      1.225391    1.356878   -3.539321
  C     -0.151156    0.387676    2.903799
  C     -0.731375   -0.417005    3.811242
  H      0.335907    1.313141    3.246842
  H     -0.725533   -0.166250    4.878622
  H     -1.233982   -1.352014    3.537902

 Multiplicity           Mult            ....    1
 Number of Electrons    NEL             ....   70
 Basis Dimension        Dim             ....   60

ORBITAL ENERGIES
----------------

  NO   OCC          E(Eh)            E(eV)
   0   2.0000     -10.016271      -272.5566
   1   2.0000     -10.016224      -272.5553
   2   2.0000     -10.004127      -272.2261
   3   2.0000     -10.004125      -272.2261
   4   2.0000     -10.002821      -272.1906
   5   2.0000     -10.002816      -272.1905
   6   2.0000     -10.002078      -272.1704
   7   2.0000     -10.001941      -272.1666
   8   2.0000      -9.988409      -271.7984
   9   2.0000      -9.988409      -271.7984
  10   2.0000      -0.805722       -21.9248
  11   2.0000      -0.750234       -20.4149
  12   2.0000      -0.714234       -19.4353
  13   2.0000      -0.696028       -18.9399
  14   2.0000      -0.663820       -18.0635
  15   2.0000      -0.585031       -15.9195
  16   2.0000      -0.555170       -15.1069
  17   2.0000      -0.527973       -14.3669
  18   2.0000      -0.506488       -13.7822
  19   2.0000      -0.453649       -12.3444
  20   2.0000      -0.435642       -11.8544
  21   2.0000      -0.406906       -11.0725
  22   2.0000      -0.394224       -10.7274
  23   2.0000      -0.392421       -10.6783
  24   2.0000      -0.370242       -10.0748
  25   2.0000      -0.347430        -9.4540
  26   2.0000      -0.343526        -9.3478
  27   2.0000      -0.320786        -8.7290
  28   2.0000      -0.307516        -8.3679
  29   2.0000      -0.289064        -7.8658
  30   2.0000      -0.283761        -7.7215
  31   2.0000      -0.259864        -7.0712
  32   2.0000      -0.208801        -5.6818
  33   2.0000      -0.191413        -5.2086
  34   2.0000      -0.149451        -4.0668
  35   0.0000       0.041022         1.1163
  36   0.0000       0.093918         2.5556
  37   0.0000       0.114205         3.1077
  38   0.0000       0.185777         5.0553
  39   0.0000       0.276017         7.5108

MULLIKEN ATOMIC CHARGES
-----------------------
   0 C :   -0.004405
   1 C :   -0.076340
   2 C :   -0.077010
   3 C :   -0.004413
   4 C :   -0.076334
   5 C :   -0.077020
   6 H :    0.077383
   7 H :    0.079018
   8 H :    0.077385
   9 H :    0.079018
  10 C :   -0.076259
  11 C :   -0.154418
  12 H :    0.076705
  13 H :    0.079088
  14 H :    0.076233
  15 C :   -0.076250
  16 C :   -0.154422
  17 H :    0.076708
  18 H :    0.079088
  19 H :    0.076243
Sum of atomic charges:   -0.0000000

LOEWDIN ATOMIC CHARGES
----------------------
   0 C :    0.003758
   1 C :   -0.043728
   2 C :   -0.044144
   3 C :    0.003750
   4 C :   -0.043723
   5 C :   -0.044154
   6 H :    0.041730
   7 H :    0.043532
   8 H :    0.041731
   9 H :    0.043533
  10 C :   -0.038860
  11 C :   -0.091303
  12 H :    0.041038
  13 H :    0.044859
  14 H :    0.043114
  15 C :   -0.038853
  16 C :   -0.091307
  17 H :    0.041041
  18 H :    0.044860
  19 H :    0.043124

  Mayer bond orders larger than 0.1
B(  0-C ,  1-C ) :   1.3625 B(  0-C ,  5-C ) :   1.3654 B(  0-C , 15-C ) :   1.0665
B(  1-C ,  2-C ) :   1.4652 B(  1-C ,  6-H ) :   0.9614 B(  2-C ,  3-C ) :   1.3654
B(  2-C ,  5-C ) :   0.1019 B(  2-C ,  7-H ) :   0.9596 B(  3-C ,  4-C ) :   1.3625
B(  3-C , 10-C ) :   1.0665 B(  4-C ,  5-C ) :   1.4653 B(  4-C ,  8-H ) :   0.9614
B(  5-C ,  9-H ) :   0.9596 B( 10-C , 11-C ) :   1.9012 B( 10-C , 12-H ) :   0.9591
B( 11-C , 13-H ) :   0.9693 B( 11-C , 14-H ) :   0.9665 B( 15-C , 16-C ) :   1.9012
B( 15-C , 17-H ) :   0.9591 B( 16-C , 18-H ) :   0.9693 B( 16-C , 19-H ) :   0.9665

FINAL SINGLE POINT ENERGY      -382.050791262454

DIPOLE MOMENT
-------------
                                X             Y             Z
Electronic contribution:      0.00513      -0.00278       0.00091
Nuclear contribution   :     -0.00518       0.00282      -0.00082
                        -----------------------------------------
Total Dipole Moment    :     -0.00004       0.00005       0.00009
                        -----------------------------------------
Magnitude (a.u.)       :      0.00011
Magnitude (Debye)      :      0.00027

                             ****ORCA TERMINATED NORMALLY****
TOTAL RUN TIME: 0 days 0 hours 34 minutes 1 seconds 194 msec
