                         Program Version 4.0.1 -  RELEASE  -
|  1> # Raman frequency single point restricted B3LYP/sto-3g calc
|  2> ! RKS STO-3G B3LYP UseSym NumFreq
|  3> %elprop Polar 1
|  4> end
|  5> * xyz 0 1
|  6>  C                  0.27867948   -1.36683162    0.00000000
|  7>  C                  1.32303041   -0.44173575    0.00000000
|  8>  C                  1.04434506    0.92484978    0.00000000
|  9>  C                 -0.27867948    1.36683162    0.00000000
| 10>  C                 -1.32303041    0.44173575    0.00000000
| 11>  C                 -1.04434506   -0.92484978    0.00000000
| 12>  H                  2.36595443   -0.79037726    0.00000000
| 13>  H                  1.86746094    1.65407997    0.00000000
| 14>  H                 -2.36595443    0.79037726    0.00000000
| 15>  H                 -1.86746094   -1.65407997    0.00000000
| 16>  C                 -0.58659169    2.87589931    0.00000000
| 17>  C                  0.36350188    3.80076420    0.00000000
| 18>  H                 -1.65647768    3.12394312    0.00000000
| 19>  H                  0.14429560    4.87693235    0.00000000
| 20>  H                  1.43338788    3.55272039    0.00000000
| 21>  C                  0.58659169   -2.87589931    0.00000000
| 22>  C                 -0.36350188   -3.80076420    0.00000000
| 23>  H                  1.65647768   -3.12394312    0.00000000
| 24>  H                 -0.14429560   -4.87693235    0.00000000
| 25>  H                 -1.43338788   -3.55272039    0.00000000
| 26> *
| 27>
| 28>
| 29>                          ****END OF INPUT****

CARTESIAN COORDINATES (ANGSTROEM)
---------------------------------
  C      0.278679   -1.366832    0.000000
  C      1.323030   -0.441736    0.000000
  C      1.044345    0.924850    0.000000
  C     -0.278679    1.366832    0.000000
  C     -1.323030    0.441736    0.000000
  C     -1.044345   -0.924850    0.000000
  H      2.365954   -0.790377    0.000000
  H      1.867461    1.654080    0.000000
  H     -2.365954    0.790377    0.000000
  H     -1.867461   -1.654080    0.000000
  C     -0.586592    2.875899    0.000000
  C      0.363502    3.800764    0.000000
  H     -1.656478    3.123943    0.000000
  H      0.144296    4.876932    0.000000
  H      1.433388    3.552720    0.000000
  C      0.586592   -2.875899    0.000000
  C     -0.363502   -3.800764    0.000000
  H      1.656478   -3.123943    0.000000
  H     -0.144296   -4.876932    0.000000
  H     -1.433388   -3.552720    0.000000

 Total Charge           Charge          ....    0
 Multiplicity           Mult            ....    1
 Number of Electrons    NEL             ....   70
 Basis Dimension        Dim             ....   60

ORBITAL ENERGIES
----------------

  NO   OCC          E(Eh)            E(eV)
   0   2.0000     -10.013885      -272.4917
   1   2.0000     -10.013820      -272.4899
   2   2.0000     -10.003676      -272.2139
   3   2.0000     -10.003675      -272.2138
   4   2.0000     -10.002781      -272.1895
   5   2.0000     -10.002746      -272.1885
   6   2.0000     -10.001674      -272.1594
   7   2.0000     -10.001566      -272.1565
   8   2.0000      -9.988142      -271.7912
   9   2.0000      -9.988142      -271.7912
  10   2.0000      -0.814332       -22.1591
  11   2.0000      -0.751403       -20.4467
  12   2.0000      -0.717026       -19.5113
  13   2.0000      -0.700471       -19.0608
  14   2.0000      -0.666500       -18.1364
  15   2.0000      -0.581505       -15.8236
  16   2.0000      -0.556896       -15.1539
  17   2.0000      -0.528388       -14.3782
  18   2.0000      -0.508512       -13.8373
  19   2.0000      -0.458321       -12.4716
  20   2.0000      -0.434938       -11.8353
  21   2.0000      -0.406808       -11.0698
  22   2.0000      -0.395963       -10.7747
  23   2.0000      -0.393602       -10.7104
  24   2.0000      -0.371845       -10.1184
  25   2.0000      -0.354213        -9.6386
  26   2.0000      -0.345354        -9.3976
  27   2.0000      -0.326523        -8.8851
  28   2.0000      -0.301657        -8.2085
  29   2.0000      -0.291832        -7.9412
  30   2.0000      -0.277271        -7.5449
  31   2.0000      -0.259438        -7.0597
  32   2.0000      -0.212256        -5.7758
  33   2.0000      -0.193830        -5.2744
  34   2.0000      -0.156285        -4.2527
  35   0.0000       0.053288         1.4500
  36   0.0000       0.094495         2.5713
  37   0.0000       0.120197         3.2707
  38   0.0000       0.185189         5.0393
  39   0.0000       0.284062         7.7297

MULLIKEN ATOMIC CHARGES
-----------------------
   0 C :   -0.004271
   1 C :   -0.078691
   2 C :   -0.076977
   3 C :   -0.004271
   4 C :   -0.078691
   5 C :   -0.076977
   6 H :    0.078352
   7 H :    0.079425
   8 H :    0.078352
   9 H :    0.079425
  10 C :   -0.074812
  11 C :   -0.155796
  12 H :    0.078312
  13 H :    0.078080
  14 H :    0.076377
  15 C :   -0.074812
  16 C :   -0.155796
  17 H :    0.078312
  18 H :    0.078080
  19 H :    0.076377
Sum of atomic charges:   -0.0000000

LOEWDIN ATOMIC CHARGES
----------------------
   0 C :    0.003111
   1 C :   -0.045652
   2 C :   -0.045147
   3 C :    0.003111
   4 C :   -0.045652
   5 C :   -0.045147
   6 H :    0.042758
   7 H :    0.044921
   8 H :    0.042758
   9 H :    0.044921
  10 C :   -0.037257
  11 C :   -0.093684
  12 H :    0.042506
  13 H :    0.044256
  14 H :    0.044187
  15 C :   -0.037257
  16 C :   -0.093684
  17 H :    0.042506
  18 H :    0.044256
  19 H :    0.044187

  Mayer bond orders larger than 0.1
B(  0-C ,  1-C ) :   1.3849 B(  0-C ,  5-C ) :   1.3878 B(  0-C , 15-C ) :   1.0300
B(  1-C ,  2-C ) :   1.4505 B(  1-C ,  4-C ) :   0.1048 B(  1-C ,  6-H ) :   0.9612
B(  2-C ,  3-C ) :   1.3878 B(  2-C ,  5-C ) :   0.1093 B(  2-C ,  7-H ) :   0.9557
B(  3-C ,  4-C ) :   1.3849 B(  3-C , 10-C ) :   1.0300 B(  4-C ,  5-C ) :   1.4505
B(  4-C ,  8-H ) :   0.9612 B(  5-C ,  9-H ) :   0.9557 B( 10-C , 11-C ) :   1.9332
B( 10-C , 12-H ) :   0.9596 B( 11-C , 13-H ) :   0.9680 B( 11-C , 14-H ) :   0.9618
B( 15-C , 16-C ) :   1.9332 B( 15-C , 17-H ) :   0.9596 B( 16-C , 18-H ) :   0.9680
B( 16-C , 19-H ) :   0.9618

FINAL SINGLE POINT ENERGY      -382.042725368283

DIPOLE MOMENT
-------------
                                X             Y             Z
Electronic contribution:      0.00000       0.00000      -0.00000
Nuclear contribution   :      0.00000       0.00000       0.00000
                        -----------------------------------------
Total Dipole Moment    :      0.00000       0.00000      -0.00000
                        -----------------------------------------
Magnitude (a.u.)       :      0.00000
Magnitude (Debye)      :      0.00000

VIBRATIONAL FREQUENCIES
-----------------------

   0:         0.00 cm**-1
   1:         0.00 cm**-1
   2:         0.00 cm**-1
   3:         0.00 cm**-1
   4:         0.00 cm**-1
   5:         0.00 cm**-1
   6:       -71.24 cm**-1 ***imaginary mode***
   7:       -63.58 cm**-1 ***imaginary mode***
   8:       187.49 cm**-1
   9:       198.68 cm**-1
  10:       300.86 cm**-1
  11:       317.68 cm**-1
  12:       403.22 cm**-1
  13:       410.80 cm**-1
  14:       455.79 cm**-1
  15:       509.32 cm**-1
  16:       580.61 cm**-1
  17:       655.91 cm**-1
  18:       679.99 cm**-1
  19:       717.15 cm**-1
  20:       723.83 cm**-1
  21:       811.63 cm**-1
  22:       868.92 cm**-1
  23:       912.69 cm**-1
  24:       922.21 cm**-1
  25:      1015.86 cm**-1
  26:      1015.93 cm**-1
  27:      1038.04 cm**-1
  28:      1056.78 cm**-1
  29:      1091.07 cm**-1
  30:      1103.75 cm**-1
  31:      1103.93 cm**-1
  32:      1108.07 cm**-1
  33:      1109.62 cm**-1
  34:      1231.20 cm**-1
  35:      1266.61 cm**-1
  36:      1266.90 cm**-1
  37:      1300.04 cm**-1
  38:      1392.53 cm**-1
  39:      1394.86 cm**-1
  40:      1433.13 cm**-1
  41:      1459.36 cm**-1
  42:      1541.91 cm**-1
  43:      1576.72 cm**-1
  44:      1592.34 cm**-1
  45:      1671.83 cm**-1
  46:      1784.09 cm**-1
  47:      1792.80 cm**-1
  48:      1870.12 cm**-1
  49:      1874.56 cm**-1
  50:      3382.40 cm**-1
  51:      3383.16 cm**-1
  52:      3432.21 cm**-1
  53:      3435.02 cm**-1
  54:      3450.68 cm**-1
  55:      3451.68 cm**-1
  56:      3459.33 cm**-1
  57:      3459.61 cm**-1
  58:      3518.31 cm**-1
  59:      3518.34 cm**-1

IR SPECTRUM
-----------

 Mode    freq (cm**-1)   T**2         TX         TY         TZ
-------------------------------------------------------------------
   8:       187.49    0.340173  (  0.000010   0.000013  -0.583244)
   9:       198.68    0.604879  ( -0.397421  -0.668532  -0.000007)
  10:       300.86    0.000000  (  0.000002  -0.000006   0.000003)
  11:       317.68    0.000000  ( -0.000001   0.000001   0.000002)
  12:       403.22    0.000000  (  0.000002   0.000006  -0.000016)
  13:       410.80    0.084834  (  0.000007   0.000003   0.291263)
  14:       455.79    5.237922  (  0.000008   0.000001  -2.288651)
  15:       509.32    1.003937  ( -0.288457  -0.959547  -0.000007)
  16:       580.61    0.000000  ( -0.000002   0.000007   0.000004)
  17:       655.91    0.000000  ( -0.000001  -0.000010  -0.000001)
  18:       679.99    0.000000  (  0.000007   0.000004  -0.000002)
  19:       717.15    2.929330  ( -0.126928  -1.706815  -0.000009)
  20:       723.83    0.185379  (  0.000006   0.000043  -0.430557)
  21:       811.63    0.000000  (  0.000000   0.000004   0.000001)
  22:       868.92    0.000000  ( -0.000005   0.000002  -0.000019)
  23:       912.69   26.833990  ( -0.000009   0.000004   5.180153)
  24:       922.21    0.000000  ( -0.000001   0.000000   0.000062)
  25:      1015.86    0.000000  (  0.000002   0.000007  -0.000177)
  26:      1015.93   35.983554  ( -0.000003  -0.000001   5.998629)
  27:      1038.04    0.000000  (  0.000005   0.000006  -0.000008)
  28:      1056.78    0.028534  ( -0.000012  -0.000009  -0.168919)
  29:      1091.07    8.258991  (  0.626495  -2.804727   0.000063)
  30:      1103.75   15.567232  ( -0.000011   0.000061  -3.945533)
  31:      1103.93    0.000008  (  0.000004  -0.000034  -0.002847)
  32:      1108.07    3.835994  ( -0.334429   1.929806   0.000213)
  33:      1109.62    0.000000  ( -0.000066   0.000397  -0.000223)
  34:      1231.20    0.714654  ( -0.677696  -0.505353   0.000001)
  35:      1266.61    0.000000  (  0.000518  -0.000087   0.000001)
  36:      1266.90    0.599223  (  0.761162  -0.140910   0.000000)
  37:      1300.04    0.000000  ( -0.000012   0.000025  -0.000001)
  38:      1392.53    0.000000  (  0.000012  -0.000213   0.000005)
  39:      1394.86   16.622712  ( -0.246497   4.069638  -0.000001)
  40:      1433.13    0.000000  ( -0.000001  -0.000015  -0.000005)
  41:      1459.36    0.160493  ( -0.398700  -0.039130  -0.000001)
  42:      1541.91   16.843356  (  4.096200  -0.253978  -0.000002)
  43:      1576.72    0.000000  ( -0.000014  -0.000009   0.000001)
  44:      1592.34    2.318338  (  0.533301   1.426159   0.000001)
  45:      1671.83   18.027262  (  0.759058  -4.177451   0.000002)
  46:      1784.09    0.000000  (  0.000003  -0.000005  -0.000000)
  47:      1792.80    0.000000  ( -0.000005   0.000003  -0.000000)
  48:      1870.12    1.994891  ( -1.218881  -0.713597  -0.000000)
  49:      1874.56    0.000000  (  0.000004   0.000004   0.000001)
  50:      3382.40   60.652269  ( -2.473852  -7.384601  -0.000000)
  51:      3383.16    0.000001  ( -0.000332  -0.001004  -0.000000)
  52:      3432.21    2.573695  ( -1.046882  -1.215620   0.000000)
  53:      3435.02    0.000000  ( -0.000098  -0.000099  -0.000000)
  54:      3450.68    1.063500  ( -0.989697  -0.289829   0.000001)
  55:      3451.68    0.000000  ( -0.000108   0.000007  -0.000001)
  56:      3459.33    0.000006  (  0.000137   0.002455  -0.000000)
  57:      3459.61    8.549235  (  0.132518   2.920903   0.000000)
  58:      3518.31    0.302479  (  0.021256  -0.549570   0.000000)
  59:      3518.34    0.000005  (  0.000090  -0.002231   0.000000)

--------------------------
THERMOCHEMISTRY AT 298.15K
--------------------------

Temperature         ... 298.15 K
Pressure            ... 1.00 atm
Total Mass          ... 130.19 AMU

Throughout the following assumptions are being made:
  (1) The electronic state is orbitally nondegenerate
  (2) There are no thermally accessible electronically excited states
  (3) Hindered rotations indicated by low frequency modes are not
      treated as such but are treated as vibrations and this may
      cause some error
  (4) All equations used are the standard statistical mechanics
      equations for an ideal gas
  (5) All vibrations are strictly harmonic

freq.     187.49  E(vib)   ...       0.36
freq.     198.68  E(vib)   ...       0.35
freq.     300.86  E(vib)   ...       0.26
freq.     317.68  E(vib)   ...       0.25
freq.     403.22  E(vib)   ...       0.19
freq.     410.80  E(vib)   ...       0.19
freq.     455.79  E(vib)   ...       0.16
freq.     509.32  E(vib)   ...       0.14
freq.     580.61  E(vib)   ...       0.11
freq.     655.91  E(vib)   ...       0.08
freq.     679.99  E(vib)   ...       0.08
freq.     717.15  E(vib)   ...       0.07
freq.     723.83  E(vib)   ...       0.06
freq.     811.63  E(vib)   ...       0.05
freq.     868.92  E(vib)   ...       0.04
freq.     912.69  E(vib)   ...       0.03
freq.     922.21  E(vib)   ...       0.03
freq.    1015.86  E(vib)   ...       0.02
freq.    1015.93  E(vib)   ...       0.02
freq.    1038.04  E(vib)   ...       0.02
freq.    1056.78  E(vib)   ...       0.02
freq.    1091.07  E(vib)   ...       0.02
freq.    1103.75  E(vib)   ...       0.02
freq.    1103.93  E(vib)   ...       0.02
freq.    1108.07  E(vib)   ...       0.02
freq.    1109.62  E(vib)   ...       0.02
freq.    1231.20  E(vib)   ...       0.01
freq.    1266.61  E(vib)   ...       0.01
freq.    1266.90  E(vib)   ...       0.01
freq.    1300.04  E(vib)   ...       0.01
freq.    1392.53  E(vib)   ...       0.00
freq.    1394.86  E(vib)   ...       0.00
freq.    1433.13  E(vib)   ...       0.00
freq.    1459.36  E(vib)   ...       0.00
freq.    1541.91  E(vib)   ...       0.00
freq.    1576.72  E(vib)   ...       0.00
freq.    1592.34  E(vib)   ...       0.00
freq.    1671.83  E(vib)   ...       0.00
freq.    1784.09  E(vib)   ...       0.00
freq.    1792.80  E(vib)   ...       0.00
freq.    1870.12  E(vib)   ...       0.00
freq.    1874.56  E(vib)   ...       0.00
freq.    3382.40  E(vib)   ...       0.00
freq.    3383.16  E(vib)   ...       0.00
freq.    3432.21  E(vib)   ...       0.00
freq.    3435.02  E(vib)   ...       0.00
freq.    3450.68  E(vib)   ...       0.00
freq.    3451.68  E(vib)   ...       0.00
freq.    3459.33  E(vib)   ...       0.00
freq.    3459.61  E(vib)   ...       0.00
freq.    3518.31  E(vib)   ...       0.00
freq.    3518.34  E(vib)   ...       0.00

------------
INNER ENERGY
------------

The inner energy is: U= E(el) + E(ZPE) + E(vib) + E(rot) + E(trans)
    E(el)   - is the total energy from the electronic structure calculation
              = E(kin-el) + E(nuc-el) + E(el-el) + E(nuc-nuc)
    E(ZPE)  - the the zero temperature vibrational energy from the frequency calculation
    E(vib)  - the the finite temperature correction to E(ZPE) due to population
              of excited vibrational states
    E(rot)  - is the rotational thermal energy
    E(trans)- is the translational thermal energy

Summary of contributions to the inner energy U:
Electronic energy                ...   -382.04272537 Eh
Zero point energy                ...      0.17824278 Eh     111.85 kcal/mol
Thermal vibrational correction   ...      0.00426389 Eh       2.68 kcal/mol
Thermal rotational correction    ...      0.00141627 Eh       0.89 kcal/mol
Thermal translational correction ...      0.00141627 Eh       0.89 kcal/mol
-----------------------------------------------------------------------
Total thermal energy                   -381.85738615 Eh

Summary of corrections to the electronic energy:
(perhaps to be used in another calculation)
Total thermal correction                  0.00709644 Eh       4.45 kcal/mol
Non-thermal (ZPE) correction              0.17824278 Eh     111.85 kcal/mol
-----------------------------------------------------------------------
Total correction                          0.18533922 Eh     116.30 kcal/mol

--------
ENTHALPY
--------

The enthalpy is H = U + kB*T
                kB is Boltzmann's constant
Total free energy                 ...   -381.85738615 Eh
Thermal Enthalpy correction       ...      0.00094421 Eh       0.59 kcal/mol
-----------------------------------------------------------------------
Total Enthalpy                    ...   -381.85644194 Eh

Vibrational entropy computed according to the QRRHO of S. Grimme
Chem.Eur.J. 2012 18 9955

-------
ENTROPY
-------

The entropy contributions are T*S = T*(S(el)+S(vib)+S(rot)+S(trans)
     S(el)   - electronic entropy
     S(vib)  - vibrational entropy
     S(rot)  - rotational entropy
     S(trans)- translational entropy
The entropies will be listed as mutliplied by the temperature to get
units of energy

Electronic entropy                ...      0.00000000 Eh      0.00 kcal/mol
Vibrational entropy               ...      0.00649559 Eh      4.08 kcal/mol
Rotational entropy                ...      0.01296357 Eh      8.13 kcal/mol
Translational entropy             ...      0.01924489 Eh     12.08 kcal/mol
-----------------------------------------------------------------------
Final entropy term                ...      0.03870405 Eh     24.29 kcal/mol

CAUTION: The rotational entropy is not quite correctly treated here
         because it includes a symmetry number that is not yet correctly
         implemented in ORCA!
For a nonlinear molecule the correct rotational entropy is:
    S(rot) = R*(ln(qrot/sn)+1.5)
    R    = 8.31441 J/mol/K = 1.987191683e-3 kcal/mol/K
    qrot = 614508.3865973
    sn is the rotational symmetry number. We have assumed 3 here
       if it is different for your molecule then you should correct
       the printed rotational entropy by manually evaluating the equation
       as given above

For convenience we print out the resulting values for sn=1 - 12:
 sn= 1  qrot/sn=  614508.3866 T*S(rot)=     8.79 kcal/mol T*S(tot)=    24.94 kcal/mol
 sn= 2  qrot/sn=  307254.1933 T*S(rot)=     8.37 kcal/mol T*S(tot)=    24.53 kcal/mol
 sn= 3  qrot/sn=  204836.1289 T*S(rot)=     8.13 kcal/mol T*S(tot)=    24.29 kcal/mol
 sn= 4  qrot/sn=  153627.0966 T*S(rot)=     7.96 kcal/mol T*S(tot)=    24.12 kcal/mol
 sn= 5  qrot/sn=  122901.6773 T*S(rot)=     7.83 kcal/mol T*S(tot)=    23.98 kcal/mol
 sn= 6  qrot/sn=  102418.0644 T*S(rot)=     7.72 kcal/mol T*S(tot)=    23.88 kcal/mol
 sn= 7  qrot/sn=   87786.9124 T*S(rot)=     7.63 kcal/mol T*S(tot)=    23.79 kcal/mol
 sn= 8  qrot/sn=   76813.5483 T*S(rot)=     7.55 kcal/mol T*S(tot)=    23.71 kcal/mol
 sn= 9  qrot/sn=   68278.7096 T*S(rot)=     7.48 kcal/mol T*S(tot)=    23.64 kcal/mol
 sn=10  qrot/sn=   61450.8387 T*S(rot)=     7.42 kcal/mol T*S(tot)=    23.57 kcal/mol
 sn=11  qrot/sn=   55864.3988 T*S(rot)=     7.36 kcal/mol T*S(tot)=    23.52 kcal/mol

                             ****ORCA TERMINATED NORMALLY****
TOTAL RUN TIME: 0 days 1 hours 9 minutes 41 seconds 640 msec
